Variables = "x","y", "Velocity_x", "Velocity_y", "Velocity_whole value", "Pressure", "Absolute pressure", "Total pressure"
Zone i=76, j=76
 0.0000000e+000  0.0000000e+000  0.0000000e+000  0.0000000e+000  0.0000000e+000 -1.5824424e-002 -1.5824424e-002 -1.5824424e-002 
 6.7567551e-003  0.0000000e+000  0.0000000e+000  0.0000000e+000  0.0000000e+000 -1.5827589e-002 -1.5827589e-002 -1.5827589e-002 
 2.0270260e-002  0.0000000e+000  0.0000000e+000  0.0000000e+000  0.0000000e+000 -1.5833918e-002 -1.5833918e-002 -1.5833918e-002 
 3.3783764e-002  0.0000000e+000  0.0000000e+000  0.0000000e+000  0.0000000e+000 -1.5920466e-002 -1.5920466e-002 -1.5920466e-002 
 4.7297269e-002  0.0000000e+000  0.0000000e+000  0.0000000e+000  0.0000000e+000 -1.6078047e-002 -1.6078047e-002 -1.6078047e-002 
 6.0810775e-002  0.0000000e+000  0.0000000e+000  0.0000000e+000  0.0000000e+000 -1.6292244e-002 -1.6292244e-002 -1.6292244e-002 
 7.4324280e-002  0.0000000e+000  0.0000000e+000  0.0000000e+000  0.0000000e+000 -1.6535932e-002 -1.6535932e-002 -1.6535932e-002 
 8.7837785e-002  0.0000000e+000  0.0000000e+000  0.0000000e+000  0.0000000e+000 -1.6795417e-002 -1.6795417e-002 -1.6795417e-002 
 1.0135127e-001  0.0000000e+000  0.0000000e+000  0.0000000e+000  0.0000000e+000 -1.7058793e-002 -1.7058793e-002 -1.7058793e-002 
 1.1486475e-001  0.0000000e+000  0.0000000e+000  0.0000000e+000  0.0000000e+000 -1.7316353e-002 -1.7316353e-002 -1.7316353e-002 
 1.2837830e-001  0.0000000e+000  0.0000000e+000  0.0000000e+000  0.0000000e+000 -1.7560698e-002 -1.7560698e-002 -1.7560698e-002 
 1.4189185e-001  0.0000000e+000  0.0000000e+000  0.0000000e+000  0.0000000e+000 -1.7786298e-002 -1.7786298e-002 -1.7786298e-002 
 1.5540534e-001  0.0000000e+000  0.0000000e+000  0.0000000e+000  0.0000000e+000 -1.7989084e-002 -1.7989084e-002 -1.7989084e-002 
 1.6891885e-001  0.0000000e+000  0.0000000e+000  0.0000000e+000  0.0000000e+000 -1.8166116e-002 -1.8166116e-002 -1.8166116e-002 
 1.8243235e-001  0.0000000e+000  0.0000000e+000  0.0000000e+000  0.0000000e+000 -1.8315319e-002 -1.8315319e-002 -1.8315319e-002 
 1.9594586e-001  0.0000000e+000  0.0000000e+000  0.0000000e+000  0.0000000e+000 -1.8435258e-002 -1.8435258e-002 -1.8435258e-002 
 2.0945935e-001  0.0000000e+000  0.0000000e+000  0.0000000e+000  0.0000000e+000 -1.8524986e-002 -1.8524986e-002 -1.8524986e-002 
 2.2297284e-001  0.0000000e+000  0.0000000e+000  0.0000000e+000  0.0000000e+000 -1.8583883e-002 -1.8583883e-002 -1.8583883e-002 
 2.3648635e-001  0.0000000e+000  0.0000000e+000  0.0000000e+000  0.0000000e+000 -1.8611562e-002 -1.8611562e-002 -1.8611562e-002 
 2.4999990e-001  0.0000000e+000  0.0000000e+000  0.0000000e+000  0.0000000e+000 -1.8607799e-002 -1.8607799e-002 -1.8607799e-002 
 2.6351345e-001  0.0000000e+000  0.0000000e+000  0.0000000e+000  0.0000000e+000 -1.8572470e-002 -1.8572470e-002 -1.8572470e-002 
 2.7702701e-001  0.0000000e+000  0.0000000e+000  0.0000000e+000  0.0000000e+000 -1.8505514e-002 -1.8505514e-002 -1.8505514e-002 
 2.9054058e-001  0.0000000e+000  0.0000000e+000  0.0000000e+000  0.0000000e+000 -1.8406920e-002 -1.8406920e-002 -1.8406920e-002 
 3.0405414e-001  0.0000000e+000  0.0000000e+000  0.0000000e+000  0.0000000e+000 -1.8276723e-002 -1.8276723e-002 -1.8276723e-002 
 3.1756771e-001  0.0000000e+000  0.0000000e+000  0.0000000e+000  0.0000000e+000 -1.8115010e-002 -1.8115010e-002 -1.8115010e-002 
 3.3108130e-001  0.0000000e+000  0.0000000e+000  0.0000000e+000  0.0000000e+000 -1.7921943e-002 -1.7921943e-002 -1.7921943e-002 
 3.4459484e-001  0.0000000e+000  0.0000000e+000  0.0000000e+000  0.0000000e+000 -1.7697778e-002 -1.7697778e-002 -1.7697778e-002 
 3.5810840e-001  0.0000000e+000  0.0000000e+000  0.0000000e+000  0.0000000e+000 -1.7442904e-002 -1.7442904e-002 -1.7442904e-002 
 3.7162197e-001  0.0000000e+000  0.0000000e+000  0.0000000e+000  0.0000000e+000 -1.7157879e-002 -1.7157879e-002 -1.7157879e-002 
 3.8513550e-001  0.0000000e+000  0.0000000e+000  0.0000000e+000  0.0000000e+000 -1.6843451e-002 -1.6843451e-002 -1.6843451e-002 
 3.9864910e-001  0.0000000e+000  0.0000000e+000  0.0000000e+000  0.0000000e+000 -1.6500600e-002 -1.6500600e-002 -1.6500600e-002 
 4.1216266e-001  0.0000000e+000  0.0000000e+000  0.0000000e+000  0.0000000e+000 -1.6130593e-002 -1.6130593e-002 -1.6130593e-002 
 4.2567623e-001  0.0000000e+000  0.0000000e+000  0.0000000e+000  0.0000000e+000 -1.5734987e-002 -1.5734987e-002 -1.5734987e-002 
 4.3918979e-001  0.0000000e+000  0.0000000e+000  0.0000000e+000  0.0000000e+000 -1.5315676e-002 -1.5315676e-002 -1.5315676e-002 
 4.5270336e-001  0.0000000e+000  0.0000000e+000  0.0000000e+000  0.0000000e+000 -1.4874891e-002 -1.4874891e-002 -1.4874891e-002 
 4.6621692e-001  0.0000000e+000  0.0000000e+000  0.0000000e+000  0.0000000e+000 -1.4415242e-002 -1.4415242e-002 -1.4415242e-002 
 4.7973049e-001  0.0000000e+000  0.0000000e+000  0.0000000e+000  0.0000000e+000 -1.3939705e-002 -1.3939705e-002 -1.3939705e-002 
 4.9324405e-001  0.0000000e+000  0.0000000e+000  0.0000000e+000  0.0000000e+000 -1.3451623e-002 -1.3451623e-002 -1.3451623e-002 
 5.0675762e-001  0.0000000e+000  0.0000000e+000  0.0000000e+000  0.0000000e+000 -1.2954700e-002 -1.2954700e-002 -1.2954700e-002 
 5.2027118e-001  0.0000000e+000  0.0000000e+000  0.0000000e+000  0.0000000e+000 -1.2452969e-002 -1.2452969e-002 -1.2452969e-002 
 5.3378475e-001  0.0000000e+000  0.0000000e+000  0.0000000e+000  0.0000000e+000 -1.1950771e-002 -1.1950771e-002 -1.1950771e-002 
 5.4729831e-001  0.0000000e+000  0.0000000e+000  0.0000000e+000  0.0000000e+000 -1.1452701e-002 -1.1452701e-002 -1.1452701e-002 
 5.6081188e-001  0.0000000e+000  0.0000000e+000  0.0000000e+000  0.0000000e+000 -1.0963554e-002 -1.0963554e-002 -1.0963554e-002 
 5.7432544e-001  0.0000000e+000  0.0000000e+000  0.0000000e+000  0.0000000e+000 -1.0488268e-002 -1.0488268e-002 -1.0488268e-002 
 5.8783901e-001  0.0000000e+000  0.0000000e+000  0.0000000e+000  0.0000000e+000 -1.0031847e-002 -1.0031847e-002 -1.0031847e-002 
 6.0135257e-001  0.0000000e+000  0.0000000e+000  0.0000000e+000  0.0000000e+000 -9.5992703e-003 -9.5992703e-003 -9.5992703e-003 
 6.1486614e-001  0.0000000e+000  0.0000000e+000  0.0000000e+000  0.0000000e+000 -9.1954172e-003 -9.1954172e-003 -9.1954172e-003 
 6.2837970e-001  0.0000000e+000  0.0000000e+000  0.0000000e+000  0.0000000e+000 -8.8249668e-003 -8.8249668e-003 -8.8249668e-003 
 6.4189327e-001  0.0000000e+000  0.0000000e+000  0.0000000e+000  0.0000000e+000 -8.4923012e-003 -8.4923012e-003 -8.4923012e-003 
 6.5540683e-001  0.0000000e+000  0.0000000e+000  0.0000000e+000  0.0000000e+000 -8.2014138e-003 -8.2014138e-003 -8.2014138e-003 
 6.6892040e-001  0.0000000e+000  0.0000000e+000  0.0000000e+000  0.0000000e+000 -7.9558073e-003 -7.9558073e-003 -7.9558073e-003 
 6.8243396e-001  0.0000000e+000  0.0000000e+000  0.0000000e+000  0.0000000e+000 -7.7584139e-003 -7.7584139e-003 -7.7584139e-003 
 6.9594753e-001  0.0000000e+000  0.0000000e+000  0.0000000e+000  0.0000000e+000 -7.6114987e-003 -7.6114987e-003 -7.6114987e-003 
 7.0946109e-001  0.0000000e+000  0.0000000e+000  0.0000000e+000  0.0000000e+000 -7.5166021e-003 -7.5166021e-003 -7.5166021e-003 
 7.2297466e-001  0.0000000e+000  0.0000000e+000  0.0000000e+000  0.0000000e+000 -7.4744686e-003 -7.4744686e-003 -7.4744686e-003 
 7.3648822e-001  0.0000000e+000  0.0000000e+000  0.0000000e+000  0.0000000e+000 -7.4849976e-003 -7.4849976e-003 -7.4849976e-003 
 7.5000179e-001  0.0000000e+000  0.0000000e+000  0.0000000e+000  0.0000000e+000 -7.5472156e-003 -7.5472156e-003 -7.5472156e-003 
 7.6351535e-001  0.0000000e+000  0.0000000e+000  0.0000000e+000  0.0000000e+000 -7.6592490e-003 -7.6592490e-003 -7.6592490e-003 
 7.7702892e-001  0.0000000e+000  0.0000000e+000  0.0000000e+000  0.0000000e+000 -7.8183245e-003 -7.8183245e-003 -7.8183245e-003 
 7.9054248e-001  0.0000000e+000  0.0000000e+000  0.0000000e+000  0.0000000e+000 -8.0207773e-003 -8.0207773e-003 -8.0207773e-003 
 8.0405605e-001  0.0000000e+000  0.0000000e+000  0.0000000e+000  0.0000000e+000 -8.2620727e-003 -8.2620727e-003 -8.2620727e-003 
 8.1756961e-001  0.0000000e+000  0.0000000e+000  0.0000000e+000  0.0000000e+000 -8.5368324e-003 -8.5368324e-003 -8.5368324e-003 
 8.3108318e-001  0.0000000e+000  0.0000000e+000  0.0000000e+000  0.0000000e+000 -8.8388883e-003 -8.8388883e-003 -8.8388883e-003 
 8.4459674e-001  0.0000000e+000  0.0000000e+000  0.0000000e+000  0.0000000e+000 -9.1613056e-003 -9.1613056e-003 -9.1613056e-003 
 8.5811031e-001  0.0000000e+000  0.0000000e+000  0.0000000e+000  0.0000000e+000 -9.4964271e-003 -9.4964271e-003 -9.4964271e-003 
 8.7162387e-001  0.0000000e+000  0.0000000e+000  0.0000000e+000  0.0000000e+000 -9.8359128e-003 -9.8359128e-003 -9.8359128e-003 
 8.8513744e-001  0.0000000e+000  0.0000000e+000  0.0000000e+000  0.0000000e+000 -1.0170767e-002 -1.0170767e-002 -1.0170767e-002 
 8.9865100e-001  0.0000000e+000  0.0000000e+000  0.0000000e+000  0.0000000e+000 -1.0491343e-002 -1.0491343e-002 -1.0491343e-002 
 9.1216457e-001  0.0000000e+000  0.0000000e+000  0.0000000e+000  0.0000000e+000 -1.0787386e-002 -1.0787386e-002 -1.0787386e-002 
 9.2567813e-001  0.0000000e+000  0.0000000e+000  0.0000000e+000  0.0000000e+000 -1.1048083e-002 -1.1048083e-002 -1.1048083e-002 
 9.3919170e-001  0.0000000e+000  0.0000000e+000  0.0000000e+000  0.0000000e+000 -1.1262324e-002 -1.1262324e-002 -1.1262324e-002 
 9.5270526e-001  0.0000000e+000  0.0000000e+000  0.0000000e+000  0.0000000e+000 -1.1419530e-002 -1.1419530e-002 -1.1419530e-002 
 9.6621883e-001  0.0000000e+000  0.0000000e+000  0.0000000e+000  0.0000000e+000 -1.1511285e-002 -1.1511285e-002 -1.1511285e-002 
 9.7973239e-001  0.0000000e+000  0.0000000e+000  0.0000000e+000  0.0000000e+000 -1.1533979e-002 -1.1533979e-002 -1.1533979e-002 
 9.9324459e-001  0.0000000e+000  0.0000000e+000  0.0000000e+000  0.0000000e+000 -1.1499736e-002 -1.1499736e-002 -1.1499736e-002 
 1.0000000e+000  0.0000000e+000  0.0000000e+000  0.0000000e+000  0.0000000e+000 -1.1482617e-002 -1.1482617e-002 -1.1482617e-002 
 0.0000000e+000  6.7567551e-003  0.0000000e+000  0.0000000e+000  0.0000000e+000 -1.5821207e-002 -1.5821207e-002 -1.5821207e-002 
 6.7567551e-003  6.7567551e-003  7.3110432e-006 -7.3066153e-006  1.0336246e-005 -1.5824392e-002 -1.5824392e-002 -1.5824392e-002 
 2.0270260e-002  6.7567551e-003  3.2687396e-005 -1.3545045e-005  3.5382680e-005 -1.5830770e-002 -1.5830770e-002 -1.5830770e-002 
 3.3783764e-002  6.7567551e-003  5.9834121e-005 -1.1554805e-005  6.0939605e-005 -1.5911644e-002 -1.5911644e-002 -1.5911642e-002 
 4.7297269e-002  6.7567551e-003  7.0151560e-005 -6.8653499e-006  7.0486698e-005 -1.6057478e-002 -1.6057478e-002 -1.6057476e-002 
 6.0810775e-002  6.7567551e-003  5.5156983e-005 -2.5798604e-006  5.5217282e-005 -1.6252248e-002 -1.6252248e-002 -1.6252246e-002 
 7.4324280e-002  6.7567551e-003  1.2326824e-005  1.7450578e-006  1.2449731e-005 -1.6475255e-002 -1.6475255e-002 -1.6475255e-002 
 8.7837785e-002  6.7567551e-003 -5.7931324e-005  5.7045304e-006  5.8211510e-005 -1.6713722e-002 -1.6713722e-002 -1.6713720e-002 
 1.0135127e-001  6.7567551e-003 -1.5416405e-004  9.1306147e-006  1.5443421e-004 -1.6956663e-002 -1.6956663e-002 -1.6956652e-002 
 1.1486475e-001  6.7567551e-003 -2.7422272e-004  1.2029397e-005  2.7448643e-004 -1.7195100e-002 -1.7195100e-002 -1.7195063e-002 
 1.2837830e-001  6.7567551e-003 -4.1560901e-004  1.4448312e-005  4.1586009e-004 -1.7422058e-002 -1.7422058e-002 -1.7421972e-002 
 1.4189185e-001  6.7567551e-003 -5.7571311e-004  1.6441698e-005  5.7594787e-004 -1.7632216e-002 -1.7632216e-002 -1.7632050e-002 
 1.5540534e-001  6.7567551e-003 -7.5194996e-004  1.8063794e-005  7.5216690e-004 -1.7821582e-002 -1.7821582e-002 -1.7821299e-002 
 1.6891885e-001  6.7567551e-003 -9.4183796e-004  1.9364732e-005  9.4203703e-004 -1.7987208e-002 -1.7987208e-002 -1.7986765e-002 
 1.8243235e-001  6.7567551e-003 -1.1430369e-003  2.0388847e-005  1.1432187e-003 -1.8126955e-002 -1.8126955e-002 -1.8126301e-002 
 1.9594586e-001  6.7567551e-003 -1.3533649e-003  2.1175403e-005  1.3535306e-003 -1.8239310e-002 -1.8239310e-002 -1.8238394e-002 
 2.0945935e-001  6.7567551e-003 -1.5707995e-003  2.1757245e-005  1.5709501e-003 -1.8323220e-002 -1.8323220e-002 -1.8321987e-002 
 2.2297284e-001  6.7567551e-003 -1.7934702e-003  2.2161896e-005  1.7936071e-003 -1.8377969e-002 -1.8377969e-002 -1.8376360e-002 
 2.3648635e-001  6.7567551e-003 -2.0196398e-003  2.2411046e-005  2.0197642e-003 -1.8403081e-002 -1.8403081e-002 -1.8401042e-002 
 2.4999990e-001  6.7567551e-003 -2.2476891e-003  2.2522163e-005  2.2478020e-003 -1.8398251e-002 -1.8398251e-002 -1.8395726e-002 
 2.6351345e-001  6.7567551e-003 -2.4760885e-003  2.2506076e-005  2.4761907e-003 -1.8363282e-002 -1.8363282e-002 -1.8360216e-002 
 2.7702701e-001  6.7567551e-003 -2.7033833e-003  2.2371154e-005  2.7034760e-003 -1.8298063e-002 -1.8298063e-002 -1.8294409e-002 
 2.9054058e-001  6.7567551e-003 -2.9281697e-003  2.2120537e-005  2.9282533e-003 -1.8202543e-002 -1.8202543e-002 -1.8198255e-002 
 3.0405414e-001  6.7567551e-003 -3.1490747e-003  2.1755284e-005  3.1491499e-003 -1.8076727e-002 -1.8076727e-002 -1.8071769e-002 
 3.1756771e-001  6.7567551e-003 -3.3647448e-003  2.1274318e-005  3.3648121e-003 -1.7920684e-002 -1.7920684e-002 -1.7915023e-002 
 3.3108130e-001  6.7567551e-003 -3.5738312e-003  2.0673067e-005  3.5738910e-003 -1.7734567e-002 -1.7734567e-002 -1.7728180e-002 
 3.4459484e-001  6.7567551e-003 -3.7749766e-003  1.9946590e-005  3.7750292e-003 -1.7518627e-002 -1.7518627e-002 -1.7511502e-002 
 3.5810840e-001  6.7567551e-003 -3.9668186e-003  1.9089042e-005  3.9668647e-003 -1.7273251e-002 -1.7273251e-002 -1.7265383e-002 
 3.7162197e-001  6.7567551e-003 -4.1479832e-003  1.8093668e-005  4.1480227e-003 -1.6998984e-002 -1.6998984e-002 -1.6990380e-002 
 3.8513550e-001  6.7567551e-003 -4.3170876e-003  1.6955901e-005  4.3171211e-003 -1.6696572e-002 -1.6696572e-002 -1.6687253e-002 
 3.9864910e-001  6.7567551e-003 -4.4727493e-003  1.5669933e-005  4.4727768e-003 -1.6366979e-002 -1.6366979e-002 -1.6356977e-002 
 4.1216266e-001  6.7567551e-003 -4.6135914e-003  1.4231584e-005  4.6136132e-003 -1.6011437e-002 -1.6011437e-002 -1.6000794e-002 
 4.2567623e-001  6.7567551e-003 -4.7382624e-003  1.2640536e-005  4.7382792e-003 -1.5631471e-002 -1.5631471e-002 -1.5620246e-002 
 4.3918979e-001  6.7567551e-003 -4.8454502e-003  1.0896147e-005  4.8454623e-003 -1.5228909e-002 -1.5228909e-002 -1.5217169e-002 
 4.5270336e-001  6.7567551e-003 -4.9338988e-003  9.0018893e-006  4.9339072e-003 -1.4805918e-002 -1.4805918e-002 -1.4793746e-002 
 4.6621692e-001  6.7567551e-003 -5.0024320e-003  6.9638500e-006  5.0024367e-003 -1.4365012e-002 -1.4365012e-002 -1.4352500e-002 
 4.7973049e-001  6.7567551e-003 -5.0499784e-003  4.7909134e-006  5.0499807e-003 -1.3909057e-002 -1.3909057e-002 -1.3896306e-002 
 4.9324405e-001  6.7567551e-003 -5.0755921e-003  2.4959418e-006  5.0755925e-003 -1.3441266e-002 -1.3441266e-002 -1.3428384e-002 
 5.0675762e-001  6.7567551e-003 -5.0784806e-003  9.5293274e-008  5.0784806e-003 -1.2965188e-002 -1.2965188e-002 -1.2952293e-002 
 5.2027118e-001  6.7567551e-003 -5.0580287e-003 -2.3914968e-006  5.0580292e-003 -1.2484688e-002 -1.2484688e-002 -1.2471897e-002 
 5.3378475e-001  6.7567551e-003 -5.0138212e-003 -4.9414211e-006  5.0138235e-003 -1.2003913e-002 -1.2003913e-002 -1.1991343e-002 
 5.4729831e-001  6.7567551e-003 -4.9456684e-003 -7.5277217e-006  4.9456740e-003 -1.1527250e-002 -1.1527250e-002 -1.1515019e-002 
 5.6081188e-001  6.7567551e-003 -4.8536258e-003 -1.0121307e-005  4.8536365e-003 -1.1059271e-002 -1.1059271e-002 -1.1047493e-002 
 5.7432544e-001  6.7567551e-003 -4.7380128e-003 -1.2688788e-005  4.7380296e-003 -1.0604684e-002 -1.0604684e-002 -1.0593460e-002 
 5.8783901e-001  6.7567551e-003 -4.5994250e-003 -1.5197523e-005  4.5994502e-003 -1.0168243e-002 -1.0168243e-002 -1.0157666e-002 
 6.0135257e-001  6.7567551e-003 -4.4387458e-003 -1.7610519e-005  4.4387807e-003 -9.7546829e-003 -9.7546829e-003 -9.7448314e-003 
 6.1486614e-001  6.7567551e-003 -4.2571542e-003 -1.9890178e-005  4.2572008e-003 -9.3686320e-003 -9.3686320e-003 -9.3595702e-003 
 6.2837970e-001  6.7567551e-003 -4.0561208e-003 -2.2000037e-005  4.0561804e-003 -9.0145217e-003 -9.0145217e-003 -9.0062954e-003 
 6.4189327e-001  6.7567551e-003 -3.8374038e-003 -2.3903020e-005  3.8374783e-003 -8.6964983e-003 -8.6964983e-003 -8.6891353e-003 
 6.5540683e-001  6.7567551e-003 -3.6030419e-003 -2.5563606e-005  3.6031324e-003 -8.4183309e-003 -8.4183309e-003 -8.4118396e-003 
 6.6892040e-001  6.7567551e-003 -3.3553303e-003 -2.6949991e-005  3.3554386e-003 -8.1833154e-003 -8.1833154e-003 -8.1776856e-003 
 6.8243396e-001  6.7567551e-003 -3.0968001e-003 -2.8030800e-005  3.0969270e-003 -7.9942001e-003 -7.9942001e-003 -7.9894047e-003 
 6.9594753e-001  6.7567551e-003 -2.8301887e-003 -2.8781657e-005  2.8303352e-003 -7.8530973e-003 -7.8530973e-003 -7.8490917e-003 
 7.0946109e-001  6.7567551e-003 -2.5584062e-003 -2.9179162e-005  2.5585727e-003 -7.7614221e-003 -7.7614221e-003 -7.7581489e-003 
 7.2297466e-001  6.7567551e-003 -2.2844963e-003 -2.9208106e-005  2.2846831e-003 -7.7198329e-003 -7.7198329e-003 -7.7172229e-003 
 7.3648822e-001  6.7567551e-003 -2.0115876e-003 -2.8859295e-005  2.0117946e-003 -7.7281785e-003 -7.7281785e-003 -7.7261548e-003 
 7.5000179e-001  6.7567551e-003 -1.7428502e-003 -2.8126893e-005  1.7430771e-003 -7.7854791e-003 -7.7854791e-003 -7.7839601e-003 
 7.6351535e-001  6.7567551e-003 -1.4814486e-003 -2.7013624e-005  1.4816949e-003 -7.8898957e-003 -7.8898957e-003 -7.8887977e-003 
 7.7702892e-001  6.7567551e-003 -1.2304825e-003 -2.5527821e-005  1.2307472e-003 -8.0387387e-003 -8.0387387e-003 -8.0379816e-003 
 7.9054248e-001  6.7567551e-003 -9.9293946e-004 -2.3682325e-005  9.9322188e-004 -8.2284696e-003 -8.2284696e-003 -8.2279760e-003 
 8.0405605e-001  6.7567551e-003 -7.7164656e-004 -2.1497184e-005  7.7194592e-004 -8.4547279e-003 -8.4547279e-003 -8.4544299e-003 
 8.1756961e-001  6.7567551e-003 -5.6920783e-004 -1.8998338e-005  5.6952477e-004 -8.7123606e-003 -8.7123606e-003 -8.7121986e-003 
 8.3108318e-001  6.7567551e-003 -3.8795837e-004 -1.6213675e-005  3.8829702e-004 -8.9954725e-003 -8.9954725e-003 -8.9953970e-003 
 8.4459674e-001  6.7567551e-003 -2.2991568e-004 -1.3177101e-005  2.3029298e-004 -9.2974538e-003 -9.2974538e-003 -9.2974277e-003 
 8.5811031e-001  6.7567551e-003 -9.6716947e-005 -9.9260797e-006  9.7224969e-005 -9.6110366e-003 -9.6110366e-003 -9.6110320e-003 
 8.7162387e-001  6.7567551e-003  1.0437793e-005 -6.5016261e-006  1.2297100e-005 -9.9283382e-003 -9.9283382e-003 -9.9283382e-003 
 8.8513744e-001  6.7567551e-003  9.0856025e-005 -2.9518337e-006  9.0903966e-005 -1.0240903e-002 -1.0240903e-002 -1.0240899e-002 
 8.9865100e-001  6.7567551e-003  1.4444700e-004  6.6407057e-007  1.4444852e-004 -1.0539739e-002 -1.0539739e-002 -1.0539729e-002 
 9.1216457e-001  6.7567551e-003  1.7185201e-004  4.2635475e-006  1.7190489e-004 -1.0815382e-002 -1.0815382e-002 -1.0815367e-002 
 9.2567813e-001  6.7567551e-003  1.7464341e-004  7.7113018e-006  1.7481357e-004 -1.1057985e-002 -1.1057985e-002 -1.1057970e-002 
 9.3919170e-001  6.7567551e-003  1.5565081e-004  1.0754677e-005  1.5602191e-004 -1.1257594e-002 -1.1257594e-002 -1.1257581e-002 
 9.5270526e-001  6.7567551e-003  1.1941665e-004  1.2922045e-005  1.2011376e-004 -1.1404966e-002 -1.1404966e-002 -1.1404959e-002 
 9.6621883e-001  6.7567551e-003  7.2876843e-005  1.3357665e-005  7.4090902e-005 -1.1492949e-002 -1.1492949e-002 -1.1492946e-002 
 9.7973239e-001  6.7567551e-003  2.7251357e-005  1.0284268e-005  2.9127352e-005 -1.1517055e-002 -1.1517055e-002 -1.1517055e-002 
 9.9324459e-001  6.7567551e-003  1.0111085e-006  1.0389550e-006  1.4497475e-006 -1.1482611e-002 -1.1482611e-002 -1.1482611e-002 
 1.0000000e+000  6.7567551e-003  0.0000000e+000  0.0000000e+000  0.0000000e+000 -1.1465390e-002 -1.1465390e-002 -1.1465390e-002 
 0.0000000e+000  2.0270260e-002  0.0000000e+000  0.0000000e+000  0.0000000e+000 -1.5814776e-002 -1.5814776e-002 -1.5814776e-002 
 6.7567551e-003  2.0270260e-002  1.3647210e-005 -3.2739546e-005  3.5470046e-005 -1.5818009e-002 -1.5818009e-002 -1.5818009e-002 
 2.0270260e-002  2.0270260e-002  5.1619598e-005 -5.1397685e-005  7.2844385e-005 -1.5824482e-002 -1.5824482e-002 -1.5824480e-002 
 3.3783764e-002  2.0270260e-002  7.7017292e-005 -3.0766503e-005  8.2935163e-005 -1.5894014e-002 -1.5894014e-002 -1.5894011e-002 
 4.7297269e-002  2.0270260e-002  5.7096680e-005  1.0421454e-005  5.8039965e-005 -1.6016355e-002 -1.6016355e-002 -1.6016353e-002 
 6.0810775e-002  2.0270260e-002 -2.5240342e-005  6.0121278e-005  6.5204622e-005 -1.6172262e-002 -1.6172262e-002 -1.6172260e-002 
 7.4324280e-002  2.0270260e-002 -1.7672112e-004  1.1249142e-004  2.0948669e-004 -1.6353907e-002 -1.6353907e-002 -1.6353885e-002 
 8.7837785e-002  2.0270260e-002 -3.9879474e-004  1.6375435e-004  4.3110640e-004 -1.6550340e-002 -1.6550340e-002 -1.6550247e-002 
 1.0135127e-001  2.0270260e-002 -6.8908365e-004  2.1177302e-004  7.2089117e-004 -1.6752411e-002 -1.6752411e-002 -1.6752150e-002 
 1.1486475e-001  2.0270260e-002 -1.0430021e-003  2.5545340e-004  1.0738295e-003 -1.6952602e-002 -1.6952602e-002 -1.6952025e-002 
 1.2837830e-001  2.0270260e-002 -1.4547419e-003  2.9430789e-004  1.4842140e-003 -1.7144786e-002 -1.7144786e-002 -1.7143685e-002 
 1.4189185e-001  2.0270260e-002 -1.9178890e-003  3.2820710e-004  1.9457693e-003 -1.7324062e-002 -1.7324062e-002 -1.7322170e-002 
 1.5540534e-001  2.0270260e-002 -2.4258387e-003  3.5723884e-004  2.4520019e-003 -1.7486587e-002 -1.7486587e-002 -1.7483581e-002 
 1.6891885e-001  2.0270260e-002 -2.9720608e-003  3.8161266e-004  2.9964603e-003 -1.7629396e-002 -1.7629396e-002 -1.7624907e-002 
 1.8243235e-001  2.0270260e-002 -3.5502485e-003  4.0160093e-004  3.5728905e-003 -1.7750237e-002 -1.7750237e-002 -1.7743854e-002 
 1.9594586e-001  2.0270260e-002 -4.1544051e-003  4.1749986e-004  4.1753310e-003 -1.7847417e-002 -1.7847417e-002 -1.7838700e-002 
 2.0945935e-001  2.0270260e-002 -4.7788769e-003  4.2960112e-004  4.7981478e-003 -1.7919693e-002 -1.7919693e-002 -1.7908182e-002 
 2.2297284e-001  2.0270260e-002 -5.4183556e-003  4.3817452e-004  5.4360442e-003 -1.7966148e-002 -1.7966148e-002 -1.7951373e-002 
 2.3648635e-001  2.0270260e-002 -6.0678520e-003  4.4346071e-004  6.0840352e-003 -1.7986126e-002 -1.7986126e-002 -1.7967619e-002 
 2.4999990e-001  2.0270260e-002 -6.7226640e-003  4.4565939e-004  6.7374199e-003 -1.7979160e-002 -1.7979160e-002 -1.7956464e-002 
 2.6351345e-001  2.0270260e-002 -7.3783207e-003  4.4492880e-004  7.3917238e-003 -1.7944911e-002 -1.7944911e-002 -1.7917592e-002 
 2.7702701e-001  2.0270260e-002 -8.0305412e-003  4.4139073e-004  8.0426624e-003 -1.7883169e-002 -1.7883169e-002 -1.7850826e-002 
 2.9054058e-001  2.0270260e-002 -8.6751906e-003  4.3512601e-004  8.6860964e-003 -1.7793793e-002 -1.7793793e-002 -1.7756069e-002 
 3.0405414e-001  2.0270260e-002 -9.3082236e-003  4.2618508e-004  9.3179755e-003 -1.7676739e-002 -1.7676739e-002 -1.7633326e-002 
 3.1756771e-001  2.0270260e-002 -9.9256607e-003  4.1459268e-004  9.9343155e-003 -1.7532038e-002 -1.7532038e-002 -1.7482692e-002 
 3.3108130e-001  2.0270260e-002 -1.0523553e-002  4.0034900e-004  1.0531166e-002 -1.7359819e-002 -1.7359819e-002 -1.7304366e-002 
 3.4459484e-001  2.0270260e-002 -1.1097956e-002  3.8344457e-004  1.1104578e-002 -1.7160330e-002 -1.7160330e-002 -1.7098675e-002 
 3.5810840e-001  2.0270260e-002 -1.1644929e-002  3.6386383e-004  1.1650612e-002 -1.6933948e-002 -1.6933948e-002 -1.6866079e-002 
 3.7162197e-001  2.0270260e-002 -1.2160528e-002  3.4158977e-004  1.2165324e-002 -1.6681200e-002 -1.6681200e-002 -1.6607203e-002 
 3.8513550e-001  2.0270260e-002 -1.2640814e-002  3.1661961e-004  1.2644779e-002 -1.6402822e-002 -1.6402822e-002 -1.6322877e-002 
 3.9864910e-001  2.0270260e-002 -1.3081882e-002  2.8896160e-004  1.3085073e-002 -1.6099738e-002 -1.6099738e-002 -1.6014129e-002 
 4.1216266e-001  2.0270260e-002 -1.3479869e-002  2.5865017e-004  1.3482350e-002 -1.5773129e-002 -1.5773129e-002 -1.5682241e-002 
 4.2567623e-001  2.0270260e-002 -1.3831016e-002  2.2574955e-004  1.3832858e-002 -1.5424436e-002 -1.5424436e-002 -1.5328762e-002 
 4.3918979e-001  2.0270260e-002 -1.4131695e-002  1.9035541e-004  1.4132977e-002 -1.5055376e-002 -1.5055376e-002 -1.4955506e-002 
 4.5270336e-001  2.0270260e-002 -1.4378470e-002  1.5260617e-004  1.4379281e-002 -1.4667973e-002 -1.4667973e-002 -1.4564591e-002 
 4.6621692e-001  2.0270260e-002 -1.4568152e-002  1.1268099e-004  1.4568588e-002 -1.4264554e-002 -1.4264554e-002 -1.4158432e-002 
 4.7973049e-001  2.0270260e-002 -1.4697860e-002  7.0806600e-005  1.4698030e-002 -1.3847764e-002 -1.3847764e-002 -1.3739748e-002 
 4.9324405e-001  2.0270260e-002 -1.4765087e-002  2.7255815e-005  1.4765112e-002 -1.3420554e-002 -1.3420554e-002 -1.3311550e-002 
 5.0675762e-001  2.0270260e-002 -1.4767765e-002 -1.7648304e-005  1.4767775e-002 -1.2986166e-002 -1.2986166e-002 -1.2877122e-002 
 5.2027118e-001  2.0270260e-002 -1.4704333e-002 -6.3537489e-005  1.4704470e-002 -1.2548127e-002 -1.2548127e-002 -1.2440016e-002 
 5.3378475e-001  2.0270260e-002 -1.4573797e-002 -1.0999690e-004  1.4574212e-002 -1.2110195e-002 -1.2110195e-002 -1.2003992e-002 
 5.4729831e-001  2.0270260e-002 -1.4375787e-002 -1.5656876e-004  1.4376639e-002 -1.1676347e-002 -1.1676347e-002 -1.1573003e-002 
 5.6081188e-001  2.0270260e-002 -1.4110617e-002 -2.0276030e-004  1.4112074e-002 -1.1250709e-002 -1.1250709e-002 -1.1151134e-002 
 5.7432544e-001  2.0270260e-002 -1.3779325e-002 -2.4804569e-004  1.3781558e-002 -1.0837519e-002 -1.0837519e-002 -1.0742553e-002 
 5.8783901e-001  2.0270260e-002 -1.3383709e-002 -2.9187821e-004  1.3386891e-002 -1.0441039e-002 -1.0441039e-002 -1.0351434e-002 
 6.0135257e-001  2.0270260e-002 -1.2926348e-002 -3.3369323e-004  1.2930655e-002 -1.0065511e-002 -1.0065511e-002 -9.9819098e-003 
 6.1486614e-001  2.0270260e-002 -1.2410626e-002 -3.7292149e-004  1.2416228e-002 -9.7150644e-003 -9.7150644e-003 -9.6379835e-003 
 6.2837970e-001  2.0270260e-002 -1.1840715e-002 -4.0900137e-004  1.1847776e-002 -9.3936352e-003 -9.3936352e-003 -9.3234507e-003 
 6.4189327e-001  2.0270260e-002 -1.1221561e-002 -4.4138555e-004  1.1230238e-002 -9.1048963e-003 -9.1048963e-003 -9.0418374e-003 
 6.5540683e-001  2.0270260e-002 -1.0558860e-002 -4.6955477e-004  1.0569296e-002 -8.8521680e-003 -8.8521680e-003 -8.7963128e-003 
 6.6892040e-001  2.0270260e-002 -9.8590013e-003 -4.9303251e-004  9.8713217e-003 -8.6383345e-003 -8.6383345e-003 -8.5896133e-003 
 6.8243396e-001  2.0270260e-002 -9.1289980e-003 -5.1138946e-004  9.1433106e-003 -8.4657762e-003 -8.4657762e-003 -8.4239766e-003 
 6.9594753e-001  2.0270260e-002 -8.3764140e-003 -5.2426301e-004  8.3928043e-003 -8.3362982e-003 -8.3362982e-003 -8.3010783e-003 
 7.0946109e-001  2.0270260e-002 -7.6092682e-003 -5.3135719e-004  7.6277982e-003 -8.2510673e-003 -8.2510673e-003 -8.2219755e-003 
 7.2297466e-001  2.0270260e-002 -6.8359347e-003 -5.3246145e-004  6.8566403e-003 -8.2105659e-003 -8.2105659e-003 -8.1870593e-003 
 7.3648822e-001  2.0270260e-002 -6.0650003e-003 -5.2745396e-004  6.0878927e-003 -8.2145445e-003 -8.2145445e-003 -8.1960130e-003 
 7.5000179e-001  2.0270260e-002 -5.3051598e-003 -5.1630259e-004  5.3302241e-003 -8.2620094e-003 -8.2620094e-003 -8.2478039e-003 
 7.6351535e-001  2.0270260e-002 -4.5650760e-003 -4.9907743e-004  4.5922757e-003 -8.3511937e-003 -8.3511937e-003 -8.3406493e-003 
 7.7702892e-001  2.0270260e-002 -3.8532238e-003 -4.7594937e-004  3.8825071e-003 -8.4795691e-003 -8.4795691e-003 -8.4720319e-003 
 7.9054248e-001  2.0270260e-002 -3.1777616e-003 -4.4718775e-004  3.2090724e-003 -8.6438563e-003 -8.6438563e-003 -8.6387070e-003 
 8.0405605e-001  2.0270260e-002 -2.5463884e-003 -4.1316645e-004  2.5796900e-003 -8.8400412e-003 -8.8400412e-003 -8.8367136e-003 
 8.1756961e-001  2.0270260e-002 -1.9661745e-003 -3.7436397e-004  2.0014970e-003 -9.0634190e-003 -9.0634190e-003 -9.0614157e-003 
 8.3108318e-001  2.0270260e-002 -1.4434267e-003 -3.3135564e-004  1.4809717e-003 -9.3086399e-003 -9.3086399e-003 -9.3075428e-003 
 8.4459674e-001  2.0270260e-002 -9.8354276e-004 -2.8482790e-004  1.0239547e-003 -9.5697502e-003 -9.5697502e-003 -9.5692258e-003 
 8.5811031e-001  2.0270260e-002 -5.9083069e-004 -2.3558064e-004  6.3606538e-004 -9.8402556e-003 -9.8402556e-003 -9.8400535e-003 
 8.7162387e-001  2.0270260e-002 -2.6833627e-004 -1.8454443e-004  3.2567009e-004 -1.0113189e-002 -1.0113189e-002 -1.0113136e-002 
 8.8513744e-001  2.0270260e-002 -1.7640474e-005 -1.3281465e-004  1.3398103e-004 -1.0381176e-002 -1.0381176e-002 -1.0381167e-002 
 8.9865100e-001  2.0270260e-002  1.6140760e-004 -8.1705461e-005  1.8090937e-004 -1.0636529e-002 -1.0636529e-002 -1.0636512e-002 
 9.1216457e-001  2.0270260e-002  2.7102442e-004 -3.2843618e-005  2.7300720e-004 -1.0871370e-002 -1.0871370e-002 -1.0871333e-002 
 9.2567813e-001  2.0270260e-002  3.1594792e-004  1.1670803e-005  3.1616341e-004 -1.1077787e-002 -1.1077787e-002 -1.1077737e-002 
 9.3919170e-001  2.0270260e-002  3.0407411e-004  4.9012026e-005  3.0799877e-004 -1.1248131e-002 -1.1248131e-002 -1.1248084e-002 
 9.5270526e-001  2.0270260e-002  2.4717973e-004  7.5285825e-005  2.5839073e-004 -1.1375836e-002 -1.1375836e-002 -1.1375803e-002 
 9.6621883e-001  2.0270260e-002  1.6170290e-004  8.5121275e-005  1.8273878e-004 -1.1456276e-002 -1.1456276e-002 -1.1456260e-002 
 9.7973239e-001  2.0270260e-002  7.1100156e-005  7.1274255e-005  1.0067398e-004 -1.1483205e-002 -1.1483205e-002 -1.1483201e-002 
 9.9324459e-001  2.0270260e-002  1.0079068e-005  2.7152319e-005  2.8962666e-005 -1.1448359e-002 -1.1448359e-002 -1.1448359e-002 
 1.0000000e+000  2.0270260e-002  0.0000000e+000  0.0000000e+000  0.0000000e+000 -1.1430937e-002 -1.1430937e-002 -1.1430937e-002 
 0.0000000e+000  3.3783764e-002  0.0000000e+000  0.0000000e+000  0.0000000e+000 -1.5727717e-002 -1.5727717e-002 -1.5727717e-002 