Variables = "x","y", "Velocity_x", "Velocity_y", "Velocity_whole value", "Pressure", "Absolute pressure", "Total pressure"
Zone i=104, j=40
 0.0000000e+000  0.0000000e+000  0.0000000e+000  0.0000000e+000  0.0000000e+000  2.7809613e+000  2.7809613e+000  2.7809613e+000 
 1.0064180e-001  0.0000000e+000  0.0000000e+000  0.0000000e+000  0.0000000e+000  2.5421782e+000  2.5421782e+000  2.5421782e+000 
 2.9387406e-001  0.0000000e+000  0.0000000e+000  0.0000000e+000  0.0000000e+000  2.0837147e+000  2.0837147e+000  2.0837147e+000 
 4.7164768e-001  0.0000000e+000  0.0000000e+000  0.0000000e+000  0.0000000e+000  2.1151218e+000  2.1151218e+000  2.1151218e+000 
 6.3519943e-001  0.0000000e+000  0.0000000e+000  0.0000000e+000  0.0000000e+000  2.0615599e+000  2.0615599e+000  2.0615599e+000 
 7.8566706e-001  0.0000000e+000  0.0000000e+000  0.0000000e+000  0.0000000e+000  2.0409138e+000  2.0409138e+000  2.0409138e+000 
 9.2409730e-001  0.0000000e+000  0.0000000e+000  0.0000000e+000  0.0000000e+000  2.0197575e+000  2.0197575e+000  2.0197575e+000 
 1.0514532e+000  0.0000000e+000  0.0000000e+000  0.0000000e+000  0.0000000e+000  2.0056689e+000  2.0056689e+000  2.0056689e+000 
 1.1686206e+000  0.0000000e+000  0.0000000e+000  0.0000000e+000  0.0000000e+000  1.9960330e+000  1.9960330e+000  1.9960330e+000 
 1.2764145e+000  0.0000000e+000  0.0000000e+000  0.0000000e+000  0.0000000e+000  1.9907141e+000  1.9907141e+000  1.9907141e+000 
 1.3755851e+000  0.0000000e+000  0.0000000e+000  0.0000000e+000  0.0000000e+000  1.9890167e+000  1.9890167e+000  1.9890167e+000 
 1.4668220e+000  0.0000000e+000  0.0000000e+000  0.0000000e+000  0.0000000e+000  1.9903184e+000  1.9903184e+000  1.9903184e+000 
 1.5507600e+000  0.0000000e+000  0.0000000e+000  0.0000000e+000  0.0000000e+000  1.9939648e+000  1.9939648e+000  1.9939648e+000 
 1.6279825e+000  0.0000000e+000  0.0000000e+000  0.0000000e+000  0.0000000e+000  1.9993237e+000  1.9993237e+000  1.9993237e+000 
 1.6990275e+000  0.0000000e+000  0.0000000e+000  0.0000000e+000  0.0000000e+000  2.0058177e+000  2.0058177e+000  2.0058177e+000 
 1.7643890e+000  0.0000000e+000  0.0000000e+000  0.0000000e+000  0.0000000e+000  2.0129507e+000  2.0129507e+000  2.0129507e+000 
 1.8245215e+000  0.0000000e+000  0.0000000e+000  0.0000000e+000  0.0000000e+000  2.0203192e+000  2.0203192e+000  2.0203192e+000 
 1.8798435e+000  0.0000000e+000  0.0000000e+000  0.0000000e+000  0.0000000e+000  2.0276127e+000  2.0276127e+000  2.0276127e+000 
 1.9307395e+000  0.0000000e+000  0.0000000e+000  0.0000000e+000  0.0000000e+000  2.0347793e+000  2.0347793e+000  2.0347793e+000 
 1.9775635e+000  0.0000000e+000  0.0000000e+000  0.0000000e+000  0.0000000e+000  2.0415030e+000  2.0415030e+000  2.0415030e+000 
 2.0442564e+000  1.7834755e-003  0.0000000e+000  0.0000000e+000  0.0000000e+000  2.0496647e+000  2.0496647e+000  2.0496647e+000 
 2.1324825e+000  8.9058103e-003  0.0000000e+000  0.0000000e+000  0.0000000e+000  2.0648720e+000  2.0648720e+000  2.0648720e+000 
 2.2198496e+000  2.3104284e-002  0.0000000e+000  0.0000000e+000  0.0000000e+000  2.0746696e+000  2.0746696e+000  2.0746696e+000 
 2.3057904e+000  4.4286817e-002  0.0000000e+000  0.0000000e+000  0.0000000e+000  2.0842991e+000  2.0842991e+000  2.0842991e+000 
 2.3897486e+000  7.2316147e-002  0.0000000e+000  0.0000000e+000  0.0000000e+000  2.0925493e+000  2.0925493e+000  2.0925493e+000 
 2.4711790e+000  1.0701038e-001  0.0000000e+000  0.0000000e+000  0.0000000e+000  2.1000698e+000  2.1000698e+000  2.1000698e+000 
 2.5495534e+000  1.4814445e-001  0.0000000e+000  0.0000000e+000  0.0000000e+000  2.1068611e+000  2.1068611e+000  2.1068611e+000 
 2.6243639e+000  1.9545165e-001  0.0000000e+000  0.0000000e+000  0.0000000e+000  2.1130497e+000  2.1130497e+000  2.1130497e+000 
 2.6951251e+000  2.4862516e-001  0.0000000e+000  0.0000000e+000  0.0000000e+000  2.1186798e+000  2.1186798e+000  2.1186798e+000 
 2.7613780e+000  3.0732015e-001  0.0000000e+000  0.0000000e+000  0.0000000e+000  2.1237907e+000  2.1237907e+000  2.1237907e+000 
 2.8226936e+000  3.7115616e-001  0.0000000e+000  0.0000000e+000  0.0000000e+000  2.1283948e+000  2.1283948e+000  2.1283948e+000 
 2.8786736e+000  4.3971899e-001  0.0000000e+000  0.0000000e+000  0.0000000e+000  2.1324940e+000  2.1324940e+000  2.1324940e+000 
 2.9289551e+000  5.1256382e-001  0.0000000e+000  0.0000000e+000  0.0000000e+000  2.1360743e+000  2.1360743e+000  2.1360743e+000 
 2.9732113e+000  5.8921838e-001  0.0000000e+000  0.0000000e+000  0.0000000e+000  2.1391096e+000  2.1391096e+000  2.1391096e+000 
 3.0111566e+000  6.6918576e-001  0.0000000e+000  0.0000000e+000  0.0000000e+000  2.1415591e+000  2.1415591e+000  2.1415591e+000 
 3.0425439e+000  7.5194693e-001  0.0000000e+000  0.0000000e+000  0.0000000e+000  2.1433737e+000  2.1433737e+000  2.1433737e+000 
 3.0671701e+000  8.3696532e-001  0.0000000e+000  0.0000000e+000  0.0000000e+000  2.1444857e+000  2.1444857e+000  2.1444857e+000 
 3.0848751e+000  9.2368990e-001  0.0000000e+000  0.0000000e+000  0.0000000e+000  2.1448174e+000  2.1448174e+000  2.1448174e+000 
 3.0955439e+000  1.0115573e+000  0.0000000e+000  0.0000000e+000  0.0000000e+000  2.1442740e+000  2.1442740e+000  2.1442740e+000 
 3.0991080e+000  1.0999985e+000  0.0000000e+000  0.0000000e+000  0.0000000e+000  2.1427431e+000  2.1427431e+000  2.1427431e+000 
 3.0955439e+000  1.1884401e+000  0.0000000e+000  0.0000000e+000  0.0000000e+000  2.1400952e+000  2.1400952e+000  2.1400952e+000 
 3.0848751e+000  1.2763081e+000  0.0000000e+000  0.0000000e+000  0.0000000e+000  2.1361773e+000  2.1361773e+000  2.1361773e+000 
 3.0671701e+000  1.3630326e+000  0.0000000e+000  0.0000000e+000  0.0000000e+000  2.1308165e+000  2.1308165e+000  2.1308165e+000 
 3.0425439e+000  1.4480510e+000  0.0000000e+000  0.0000000e+000  0.0000000e+000  2.1238048e+000  2.1238048e+000  2.1238048e+000 
 3.0111570e+000  1.5308125e+000  0.0000000e+000  0.0000000e+000  0.0000000e+000  2.1149101e+000  2.1149101e+000  2.1149101e+000 
 2.9732127e+000  1.6107800e+000  0.0000000e+000  0.0000000e+000  0.0000000e+000  2.1038556e+000  2.1038556e+000  2.1038556e+000 
 2.9289560e+000  1.6874344e+000  0.0000000e+000  0.0000000e+000  0.0000000e+000  2.0903268e+000  2.0903268e+000  2.0903268e+000 
 2.8786745e+000  1.7602794e+000  0.0000000e+000  0.0000000e+000  0.0000000e+000  2.0739448e+000  2.0739448e+000  2.0739448e+000 
 2.8226950e+000  1.8288425e+000  0.0000000e+000  0.0000000e+000  0.0000000e+000  2.0542736e+000  2.0542736e+000  2.0542736e+000 
 2.7613800e+000  1.8926785e+000  0.0000000e+000  0.0000000e+000  0.0000000e+000  2.0307918e+000  2.0307918e+000  2.0307918e+000 
 2.6951270e+000  1.9513735e+000  0.0000000e+000  0.0000000e+000  0.0000000e+000  2.0028615e+000  2.0028615e+000  2.0028615e+000 
 2.6243660e+000  2.0045469e+000  0.0000000e+000  0.0000000e+000  0.0000000e+000  1.9697145e+000  1.9697145e+000  1.9697145e+000 
 2.5495555e+000  2.0518546e+000  0.0000000e+000  0.0000000e+000  0.0000000e+000  1.9303696e+000  1.9303696e+000  1.9303696e+000 
 2.4711809e+000  2.0929890e+000  0.0000000e+000  0.0000000e+000  0.0000000e+000  1.8835801e+000  1.8835801e+000  1.8835801e+000 
 2.3897505e+000  2.1276836e+000  0.0000000e+000  0.0000000e+000  0.0000000e+000  1.8277222e+000  1.8277222e+000  1.8277222e+000 
 2.3057923e+000  2.1557131e+000  0.0000000e+000  0.0000000e+000  0.0000000e+000  1.7602124e+000  1.7602124e+000  1.7602124e+000 
 2.2198515e+000  2.1768956e+000  0.0000000e+000  0.0000000e+000  0.0000000e+000  1.6786450e+000  1.6786450e+000  1.6786450e+000 
 2.1324844e+000  2.1910939e+000  0.0000000e+000  0.0000000e+000  0.0000000e+000  1.5742702e+000  1.5742702e+000  1.5742702e+000 
 2.0442576e+000  2.1982164e+000  0.0000000e+000  0.0000000e+000  0.0000000e+000  1.4487528e+000  1.4487528e+000  1.4487528e+000 
 1.9740064e+000  2.2000000e+000  0.0000000e+000  0.0000000e+000  0.0000000e+000  1.2906765e+000  1.2906765e+000  1.2906765e+000 
 1.9209795e+000  2.2000000e+000  0.0000000e+000  0.0000000e+000  0.0000000e+000  1.1429049e+000  1.1429049e+000  1.1429049e+000 
 1.8658310e+000  2.2000000e+000  0.0000000e+000  0.0000000e+000  0.0000000e+000  9.9547714e-001  9.9547714e-001  9.9547714e-001 
 1.8084769e+000  2.2000000e+000  0.0000000e+000  0.0000000e+000  0.0000000e+000  8.4617752e-001  8.4617752e-001  8.4617752e-001 
 1.7488290e+000  2.2000000e+000  0.0000000e+000  0.0000000e+000  0.0000000e+000  6.9860822e-001  6.9860822e-001  6.9860822e-001 
 1.6867945e+000  2.2000000e+000  0.0000000e+000  0.0000000e+000  0.0000000e+000  5.5929083e-001  5.5929083e-001  5.5929083e-001 
 1.6222785e+000  2.2000000e+000  0.0000000e+000  0.0000000e+000  0.0000000e+000  4.3037346e-001  4.3037346e-001  4.3037346e-001 
 1.5551825e+000  2.2000000e+000  0.0000000e+000  0.0000000e+000  0.0000000e+000  3.1511387e-001  3.1511387e-001  3.1511387e-001 
 1.4854031e+000  2.2000000e+000  0.0000000e+000  0.0000000e+000  0.0000000e+000  2.1539648e-001  2.1539648e-001  2.1539648e-001 
 1.4128315e+000  2.2000000e+000  0.0000000e+000  0.0000000e+000  0.0000000e+000  1.3216355e-001  1.3216355e-001  1.3216355e-001 
 1.3373575e+000  2.2000000e+000  0.0000000e+000  0.0000000e+000  0.0000000e+000  6.5381400e-002  6.5381400e-002  6.5381400e-002 
 1.2588650e+000  2.2000000e+000  0.0000000e+000  0.0000000e+000  0.0000000e+000  1.4417938e-002  1.4417938e-002  1.4417938e-002 
 1.1772320e+000  2.2000000e+000  0.0000000e+000  0.0000000e+000  0.0000000e+000 -2.1983609e-002 -2.1983609e-002 -2.1983609e-002 
 1.0923340e+000  2.2000000e+000  0.0000000e+000  0.0000000e+000  0.0000000e+000 -4.5325547e-002 -4.5325547e-002 -4.5325547e-002 
 1.0040401e+000  2.2000000e+000  0.0000000e+000  0.0000000e+000  0.0000000e+000 -5.7341214e-002 -5.7341214e-002 -5.7341214e-002 
 9.1221428e-001  2.2000000e+000  0.0000000e+000  0.0000000e+000  0.0000000e+000 -5.9767079e-002 -5.9767079e-002 -5.9767079e-002 
 8.1671578e-001  2.2000000e+000  0.0000000e+000  0.0000000e+000  0.0000000e+000 -5.4302696e-002 -5.4302696e-002 -5.4302696e-002 
 7.1739727e-001  2.2000000e+000  0.0000000e+000  0.0000000e+000  0.0000000e+000 -4.2553451e-002 -4.2553451e-002 -4.2553451e-002 
 6.1410606e-001  2.2000000e+000  0.0000000e+000  0.0000000e+000  0.0000000e+000 -2.5972759e-002 -2.5972759e-002 -2.5972759e-002 
 5.0668305e-001  2.2000000e+000  0.0000000e+000  0.0000000e+000  0.0000000e+000 -5.8857533e-003 -5.8857533e-003 -5.8857533e-003 
 3.9496297e-001  2.2000000e+000  0.0000000e+000  0.0000000e+000  0.0000000e+000  1.6561329e-002  1.6561329e-002  1.6561329e-002 
 2.7877408e-001  2.2000000e+000  0.0000000e+000  0.0000000e+000  0.0000000e+000  4.0335063e-002  4.0335063e-002  4.0335063e-002 
 1.5793784e-001  2.2000000e+000  0.0000000e+000  0.0000000e+000  0.0000000e+000  6.4576961e-002  6.4576961e-002  6.4576961e-002 
 3.2268204e-002  2.2000000e+000  0.0000000e+000  0.0000000e+000  0.0000000e+000  8.8517532e-002  8.8517532e-002  8.8517532e-002 
-9.8428391e-002  2.2000000e+000  0.0000000e+000  0.0000000e+000  0.0000000e+000  1.1153221e-001  1.1153221e-001  1.1153221e-001 
-2.3435290e-001  2.2000000e+000  0.0000000e+000  0.0000000e+000  0.0000000e+000  1.3305981e-001  1.3305981e-001  1.3305981e-001 
-3.7571430e-001  2.2000000e+000  0.0000000e+000  0.0000000e+000  0.0000000e+000  1.5263680e-001  1.5263680e-001  1.5263680e-001 
-5.2272999e-001  2.2000000e+000  0.0000000e+000  0.0000000e+000  0.0000000e+000  1.6984789e-001  1.6984789e-001  1.6984789e-001 
-6.7562628e-001  2.2000000e+000  0.0000000e+000  0.0000000e+000  0.0000000e+000  1.8433893e-001  1.8433893e-001  1.8433893e-001 
-8.3463848e-001  2.2000000e+000  0.0000000e+000  0.0000000e+000  0.0000000e+000  1.9579643e-001  1.9579643e-001  1.9579643e-001 
-1.0000112e+000  2.2000000e+000  0.0000000e+000  0.0000000e+000  0.0000000e+000  2.0397513e-001  2.0397513e-001  2.0397513e-001 
-1.1719990e+000  2.2000000e+000  0.0000000e+000  0.0000000e+000  0.0000000e+000  2.0866542e-001  2.0866542e-001  2.0866542e-001 
-1.3508660e+000  2.2000000e+000  0.0000000e+000  0.0000000e+000  0.0000000e+000  2.0972835e-001  2.0972835e-001  2.0972835e-001 
-1.5368874e+000  2.2000000e+000  0.0000000e+000  0.0000000e+000  0.0000000e+000  2.0715275e-001  2.0715275e-001  2.0715275e-001 
-1.7303500e+000  2.2000000e+000  0.0000000e+000  0.0000000e+000  0.0000000e+000  2.0098756e-001  2.0098756e-001  2.0098756e-001 
-1.9315510e+000  2.2000000e+000  0.0000000e+000  0.0000000e+000  0.0000000e+000  1.9136018e-001  1.9136018e-001  1.9136018e-001 
-2.1408005e+000  2.2000000e+000  0.0000000e+000  0.0000000e+000  0.0000000e+000  1.7844437e-001  1.7844437e-001  1.7844437e-001 
-2.3584199e+000  2.2000000e+000  0.0000000e+000  0.0000000e+000  0.0000000e+000  1.6248454e-001  1.6248454e-001  1.6248454e-001 
-2.5847435e+000  2.2000000e+000  0.0000000e+000  0.0000000e+000  0.0000000e+000  1.4374009e-001  1.4374009e-001  1.4374009e-001 
-2.8201199e+000  2.2000000e+000  0.0000000e+000  0.0000000e+000  0.0000000e+000  1.2242089e-001  1.2242089e-001  1.2242089e-001 
-3.0649118e+000  2.2000000e+000  0.0000000e+000  0.0000000e+000  0.0000000e+000  9.8926492e-002  9.8926492e-002  9.8926492e-002 
-3.3194962e+000  2.2000000e+000  0.0000000e+000  0.0000000e+000  0.0000000e+000  7.2543435e-002  7.2543435e-002  7.2543435e-002 
-3.5842631e+000  2.2000000e+000  0.0000000e+000  0.0000000e+000  0.0000000e+000  4.6299890e-002  4.6299890e-002  4.6299890e-002 
-3.8596210e+000  2.2000000e+000  0.0000000e+000  0.0000000e+000  0.0000000e+000  1.2394363e-002  1.2394363e-002  1.2394363e-002 
-4.0000000e+000  2.2000000e+000  0.0000000e+000  0.0000000e+000  0.0000000e+000 -4.8908545e-003 -4.8908545e-003 -4.8908545e-003 
 0.0000000e+000  8.1862500e-003  1.0000000e+000  0.0000000e+000  1.0000000e+000  2.7588913e+000  2.7588913e+000  3.2588913e+000 
 1.0064180e-001  8.2396995e-003  2.2615847e-001  3.9140653e-002  2.2952047e-001  2.5289557e+000  2.5289557e+000  2.5552955e+000 
 2.9387406e-001  8.3423276e-003  1.1991481e-001  1.6707780e-003  1.1992645e-001  2.0874791e+000  2.0874791e+000  2.0946703e+000 
 4.7164768e-001  8.4367450e-003  8.1602901e-002 -1.1704120e-005  8.1602901e-002  2.1165504e+000  2.1165504e+000  2.1198800e+000 
 6.3519943e-001  8.5236076e-003  7.5146005e-002  1.4811127e-004  7.5146154e-002  2.0622048e+000  2.0622048e+000  2.0650282e+000 
 7.8566706e-001  8.6035226e-003  6.7596227e-002  6.4011241e-005  6.7596257e-002  2.0414395e+000  2.0414395e+000  2.0437241e+000 
 9.2409730e-001  8.6770430e-003  6.3012093e-002  8.0307887e-005  6.3012145e-002  2.0202084e+000  2.0202084e+000  2.0221937e+000 
 1.0514532e+000  8.7446831e-003  5.8566459e-002  7.7872588e-005  5.8566511e-002  2.0061221e+000  2.0061221e+000  2.0078371e+000 
 1.1686206e+000  8.8069104e-003  5.4362800e-002  8.6528271e-005  5.4362867e-002  1.9965106e+000  1.9965106e+000  1.9979883e+000 
 1.2764145e+000  8.8641550e-003  5.0101276e-002  9.4800766e-005  5.0101366e-002  1.9912337e+000  1.9912337e+000  1.9924887e+000 
 1.3755851e+000  8.9168251e-003  4.5762472e-002  1.0351293e-004  4.5762587e-002  1.9895850e+000  1.9895850e+000  1.9906322e+000 
 1.4668220e+000  8.9652799e-003  4.1365985e-002  1.1085239e-004  4.1366134e-002  1.9909360e+000  1.9909360e+000  1.9917916e+000 
 1.5507600e+000  9.0098577e-003  3.6979988e-002  1.1609901e-004  3.6980171e-002  1.9946264e+000  1.9946264e+000  1.9953102e+000 
 1.6279825e+000  9.0508703e-003  3.2688901e-002  1.1865803e-004  3.2689117e-002  2.0000203e+000  2.0000203e+000  2.0005546e+000 
 1.6990275e+000  9.0886028e-003  2.8576937e-002  1.1855303e-004  2.8577182e-002  2.0065374e+000  2.0065374e+000  2.0069458e+000 
 1.7643890e+000  9.1233179e-003  2.4716044e-002  1.1571917e-004  2.4716314e-002  2.0136817e+000  2.0136817e+000  2.0139871e+000 
 1.8245215e+000  9.1552502e-003  2.1157464e-002  1.1085259e-004  2.1157755e-002  2.0210505e+000  2.0210505e+000  2.0212743e+000 
 1.8798435e+000  9.1846343e-003  1.7909972e-002  1.0863214e-004  1.7910302e-002  2.0283315e+000  2.0283315e+000  2.0284920e+000 
 1.9307395e+000  9.2116669e-003  1.5023168e-002  1.0323697e-004  1.5023523e-002  2.0354710e+000  2.0354710e+000  2.0355837e+000 
 1.9775635e+000  9.2365332e-003  1.2472610e-002  3.8351154e-005  1.2472669e-002  2.0420866e+000  2.0420866e+000  2.0421643e+000 
 2.0439272e+000  1.0964183e-002  9.1231037e-003  4.6762102e-004  9.1350805e-003  2.0502045e+000  2.0502045e+000  2.0502462e+000 
 2.1314967e+000  1.7924568e-002  6.3710790e-003  7.5941248e-004  6.4161792e-003  2.0651596e+000  2.0651596e+000  2.0651801e+000 
 2.2182136e+000  3.1908434e-002  5.4493723e-003  1.1212684e-003  5.5635334e-003  2.0748186e+000  2.0748186e+000  2.0748341e+000 
 2.3035150e+000  5.2824389e-002  4.6415548e-003  1.3400975e-003  4.8311376e-003  2.0843952e+000  2.0843952e+000  2.0844069e+000 
 2.3868482e+000  8.0536179e-002  4.2461264e-003  1.6058519e-003  4.5396420e-003  2.0926003e+000  2.0926003e+000  2.0926106e+000 
 2.4676728e+000  1.1486328e-001  4.0078722e-003  1.8944507e-003  4.4330559e-003  2.1000900e+000  2.1000900e+000  2.1000998e+000 
 2.5454640e+000  1.5558229e-001  3.9010576e-003  2.2433959e-003  4.5001195e-003  2.1068556e+000  2.1068556e+000  2.1068656e+000 
 2.6197176e+000  2.0242850e-001  3.8695121e-003  2.6600326e-003  4.6956255e-003  2.1130223e+000  2.1130223e+000  2.1130333e+000 
 2.6899519e+000  2.5509733e-001  3.8824729e-003  3.1569044e-003  5.0039627e-003  2.1186323e+000  2.1186323e+000  2.1186450e+000 
 2.7557120e+000  3.1324655e-001  3.9122556e-003  3.7422844e-003  5.4139113e-003  2.1237245e+000  2.1237245e+000  2.1237390e+000 
 2.8165710e+000  3.7649855e-001  3.9366032e-003  4.4246255e-003  5.9223436e-003  2.1283107e+000  2.1283107e+000  2.1283283e+000 
 2.8721344e+000  4.4444221e-001  3.9333482e-003  5.2111899e-003  6.5289913e-003  2.1323922e+000  2.1323922e+000  2.1324134e+000 
 2.9220417e+000  5.1663601e-001  3.8819409e-003  6.1096852e-003  7.2386269e-003  2.1359553e+000  2.1359553e+000  2.1359816e+000 
 2.9659686e+000  5.9261113e-001  3.7609688e-003  7.1283872e-003  8.0597019e-003  2.1389735e+000  2.1389735e+000  2.1390059e+000 
 3.0036311e+000  6.7187440e-001  3.5468654e-003  8.2744760e-003  9.0026222e-003  2.1414063e+000  2.1414063e+000  2.1414468e+000 
 3.0347850e+000  7.5391072e-001  3.2135374e-003  9.5555671e-003  1.0081452e-002  2.1432045e+000  2.1432045e+000  2.1432552e+000 
 3.0592277e+000  8.3818752e-001  2.7320418e-003  1.0978470e-002  1.1313304e-002  2.1443005e+000  2.1443005e+000  2.1443644e+000 
 3.0768013e+000  9.2415774e-001  2.0684602e-003  1.2548247e-002  1.2717588e-002  2.1446164e+000  2.1446164e+000  2.1446972e+000 
 3.0873909e+000  1.0112624e+000  1.1848575e-003  1.4269540e-002  1.4318648e-002  2.1440580e+000  2.1440580e+000  2.1441605e+000 
 3.0909286e+000  1.0989366e+000  3.7450380e-005  1.6143339e-002  1.6143382e-002  2.1425123e+000  2.1425123e+000  2.1426427e+000 
 3.0873909e+000  1.1866107e+000 -1.4234515e-003  1.8166605e-002  1.8222287e-002  2.1398504e+000  2.1398504e+000  2.1400163e+000 
 3.0768013e+000  1.2737157e+000 -3.2543601e-003  2.0331519e-002  2.0590326e-002  2.1359184e+000  2.1359184e+000  2.1361303e+000 
 3.0592279e+000  1.3596860e+000 -5.5181589e-003  2.2623124e-002  2.3286387e-002  2.1305435e+000  2.1305435e+000  2.1308146e+000 
 3.0347855e+000  1.4439631e+000 -8.2843918e-003  2.5018102e-002  2.6354061e-002  2.1235170e+000  2.1235170e+000  2.1238644e+000 
 3.0036321e+000  1.5259995e+000 -1.1630489e-002  2.7485378e-002  2.9844837e-002  2.1146061e+000  2.1146061e+000  2.1150515e+000 
 2.9659698e+000  1.6052628e+000 -1.5639773e-002  2.9979566e-002  3.3813857e-002  2.1035323e+000  2.1035323e+000  2.1041040e+000 
 2.9220428e+000  1.6812379e+000 -2.0402418e-002  3.2440882e-002  3.8323224e-002  2.0899794e+000  2.0899794e+000  2.0907137e+000 
 2.8721356e+000  1.7534320e+000 -2.6015567e-002  3.4798738e-002  4.3448381e-002  2.0735660e+000  2.0735660e+000  2.0745099e+000 
 2.8165727e+000  1.8213757e+000 -3.2583386e-002  3.6960840e-002  4.9272515e-002  2.0538521e+000  2.0538521e+000  2.0550659e+000 
 2.7557137e+000  1.8846278e+000 -4.0219240e-002  3.8817380e-002  5.5896118e-002  2.0303109e+000  2.0303109e+000  2.0318730e+000 
 2.6899538e+000  1.9427769e+000 -4.9047209e-002  4.0238760e-002  6.3441202e-002  2.0022981e+000  2.0022981e+000  2.0043106e+000 
 2.6197193e+000  1.9954457e+000 -5.9210755e-002  4.1071754e-002  7.2061099e-002  1.9690356e+000  1.9690356e+000  1.9716320e+000 
 2.5454655e+000  2.0422924e+000 -7.0880912e-002  4.1135997e-002  8.1952877e-002  1.9295284e+000  1.9295284e+000  1.9328865e+000 
 2.4676743e+000  2.0830119e+000 -8.4277183e-002  4.0217109e-002  9.3381256e-002  1.8825079e+000  1.8825079e+000  1.8868680e+000 
 2.3868499e+000  2.1173391e+000 -9.9750847e-002  3.8083583e-002  1.0677355e-001  1.8263260e+000  1.8263260e+000  1.8320264e+000 
 2.3035169e+000  2.1450508e+000 -1.1764822e-001  3.4357015e-002  1.2256227e-001  1.7583271e+000  1.7583271e+000  1.7658379e+000 
 2.2182155e+000  2.1659667e+000 -1.3926800e-001  2.8835060e-002  1.4222178e-001  1.6760898e+000  1.6760898e+000  1.6862032e+000 
 2.1314988e+000  2.1799507e+000 -1.6450596e-001  2.0465000e-002  1.6577402e-001  1.5704844e+000  1.5704844e+000  1.5842249e+000 
 2.0439281e+000  2.1869113e+000 -2.0216441e-001  9.7020464e-003  2.0239708e-001  1.4432998e+000  1.4432998e+000  1.4637821e+000 
 1.9740064e+000  2.1886411e+000 -2.3831375e-001  1.3877322e-003  2.3831779e-001  1.2853028e+000  1.2853028e+000  1.3137004e+000 
 1.9209795e+000  2.1886692e+000 -2.6034892e-001  2.1472371e-004  2.6034901e-001  1.1385769e+000  1.1385769e+000  1.1724677e+000 
 1.8658310e+000  2.1886985e+000 -2.7231145e-001 -6.1701932e-005  2.7231145e-001  9.9248612e-001  9.9248612e-001  1.0295628e+000 
 1.8084769e+000  2.1887290e+000 -2.7937287e-001 -3.7225473e-004  2.7937311e-001  8.4426183e-001  8.4426183e-001  8.8328648e-001 
 1.7488290e+000  2.1887605e+000 -2.8153169e-001 -4.8266782e-004  2.8153211e-001  6.9783080e-001  6.9783080e-001  7.3746097e-001 
 1.6867945e+000  2.1887934e+000 -2.7901608e-001 -8.1908668e-004  2.7901727e-001  5.5910724e-001  5.5910724e-001  5.9803259e-001 
 1.6222785e+000  2.1888280e+000 -2.7241623e-001 -9.3277346e-004  2.7241784e-001  4.3090492e-001  4.3090492e-001  4.6801066e-001 
 1.5551825e+000  2.1888635e+000 -2.6235473e-001 -9.7195216e-004  2.6235652e-001  3.1622705e-001  3.1622705e-001  3.5064253e-001 
 1.4854031e+000  2.1889005e+000 -2.4951282e-001 -9.5970166e-004  2.4951467e-001  2.1694924e-001  2.1694924e-001  2.4807802e-001 
 1.4128315e+000  2.1889391e+000 -2.3463221e-001 -9.0972357e-004  2.3463397e-001  1.3402329e-001  1.3402329e-001  1.6154985e-001 
 1.3373575e+000  2.1889791e+000 -2.1841563e-001 -8.3498715e-004  2.1841723e-001  6.7420930e-002  6.7420930e-002  9.1273971e-002 
 1.2588650e+000  2.1890206e+000 -2.0150661e-001 -7.4619276e-004  2.0150800e-001  1.6531695e-002  1.6531695e-002  3.6834430e-002 
 1.1772320e+000  2.1890643e+000 -1.8445586e-001 -6.5310742e-004  1.8445702e-001 -1.9883441e-002 -1.9883441e-002 -2.8712461e-003 
 1.0923340e+000  2.1891096e+000 -1.6771278e-001 -5.6145847e-004  1.6771372e-001 -4.3303780e-002 -4.3303780e-002 -2.9239835e-002 
 1.0040401e+000  2.1891563e+000 -1.5162975e-001 -4.7661507e-004  1.5163049e-001 -5.5444956e-002 -5.5444956e-002 -4.3949053e-002 
 9.1221428e-001  2.1892049e+000 -1.3645107e-001 -3.9766225e-004  1.3645165e-001 -5.8024883e-002 -5.8024883e-002 -4.8715357e-002 
 8.1671578e-001  2.1892557e+000 -1.2235281e-001 -3.2888041e-004  1.2235325e-001 -5.2731980e-002 -5.2731980e-002 -4.5246821e-002 
 7.1739727e-001  2.1893086e+000 -1.0944828e-001 -2.6780181e-004  1.0944860e-001 -4.1160736e-002 -4.1160736e-002 -3.5171237e-002 
 6.1410606e-001  2.1893632e+000 -9.7801119e-002 -2.1556990e-004  9.7801358e-002 -2.4757169e-002 -2.4757169e-002 -1.9974617e-002 
 5.0668305e-001  2.1894202e+000 -8.7432496e-002 -1.7013948e-004  8.7432660e-002 -4.8422394e-003 -4.8422394e-003 -1.0200043e-003 
 3.9496297e-001  2.1894798e+000 -7.8339584e-002 -1.3193776e-004  7.8339696e-002  1.7442493e-002  1.7442493e-002  2.0511046e-002 
 2.7877408e-001  2.1895416e+000 -7.0497088e-002 -9.9493649e-005  7.0497155e-002  4.1064691e-002  4.1064691e-002  4.3549616e-002 
 1.5793781e-001  2.1896055e+000 -6.3860454e-002 -7.2546136e-005  6.3860498e-002  6.5168291e-002  6.5168291e-002  6.7207374e-002 
 3.2268215e-002  2.1896722e+000 -5.8367830e-002 -4.9682007e-005  5.8367852e-002  8.8984251e-002  8.8984251e-002  9.0687655e-002 
-9.8428391e-002  2.1897418e+000 -5.3947106e-002 -3.1379208e-005  5.3947113e-002  1.1188836e-001  1.1188836e-001  1.1334350e-001 
-2.3435292e-001  2.1898139e+000 -5.0518997e-002 -1.6157159e-005  5.0519001e-002  1.3331959e-001  1.3331959e-001  1.3459568e-001 
-3.7571433e-001  2.1898887e+000 -4.7989912e-002 -4.1970825e-006  4.7989912e-002  1.5281385e-001  1.5281385e-001  1.5396537e-001 
-5.2273005e-001  2.1899669e+000 -4.6261676e-002  5.3678004e-006  4.6261676e-002  1.6995598e-001  1.6995598e-001  1.7102605e-001 
-6.7562634e-001  2.1900482e+000 -4.5230281e-002  1.2226922e-005  4.5230281e-002  1.8439049e-001  1.8439049e-001  1.8541338e-001 
-8.3463848e-001  2.1901326e+000 -4.4786010e-002  1.7063541e-005  4.4786014e-002  1.9580370e-001  1.9580370e-001  1.9680659e-001 
-1.0000112e+000  2.1902206e+000 -4.4810377e-002  1.6520951e-005  4.4810381e-002  2.0394455e-001  2.0394455e-001  2.0494853e-001 
-1.1719990e+000  2.1903119e+000 -4.5186747e-002  1.4859172e-005  4.5186751e-002  2.0860808e-001  2.0860808e-001  2.0962900e-001 
-1.3508660e+000  2.1904070e+000 -4.5798995e-002  1.8921848e-005  4.5798998e-002  2.0966288e-001  2.0966288e-001  2.1071166e-001 
-1.5368874e+000  2.1905057e+000 -4.6536174e-002  1.9064224e-005  4.6536177e-002  2.0708299e-001  2.0708299e-001  2.0816579e-001 
-1.7303500e+000  2.1906083e+000 -4.7301289e-002  1.6321219e-005  4.7301292e-002  2.0091654e-001  2.0091654e-001  2.0203525e-001 
-1.9315510e+000  2.1907153e+000 -4.8008431e-002  1.0395695e-005  4.8008431e-002  1.9128615e-001  1.9128615e-001  1.9243856e-001 
-2.1408005e+000  2.1908264e+000 -4.8597008e-002  9.3214730e-006  4.8597008e-002  1.7838164e-001  1.7838164e-001  1.7956246e-001 
-2.3584199e+000  2.1909420e+000 -4.9029827e-002  1.0329815e-005  4.9029827e-002  1.6243494e-001  1.6243494e-001  1.6363689e-001 
-2.5847435e+000  2.1910622e+000 -4.9285796e-002  7.9544579e-006  4.9285796e-002  1.4369939e-001  1.4369939e-001  1.4491394e-001 
-2.8201199e+000  2.1911874e+000 -4.9340948e-002  6.0275220e-006  4.9340948e-002  1.2238705e-001  1.2238705e-001  1.2360431e-001 
-3.0649118e+000  2.1913173e+000 -4.9297750e-002  4.9100909e-006  4.9297750e-002  9.8902166e-002  9.8902166e-002  1.0011730e-001 
-3.3194962e+000  2.1914525e+000 -4.8882857e-002  1.9657273e-006  4.8882857e-002  7.2519787e-002  7.2519787e-002  7.3714554e-002 
-3.5842631e+000  2.1915932e+000 -4.8851989e-002  6.4846931e-006  4.8851989e-002  4.6285972e-002  4.6285972e-002  4.7479231e-002 
-3.8596210e+000  2.1917396e+000 -4.7810391e-002 -1.8901225e-006  4.7810391e-002  1.2380575e-002  1.2380575e-002  1.3523491e-002 
-4.0000000e+000  2.1918139e+000 -4.7810391e-002 -1.8901354e-006  4.7810391e-002  0.0000000e+000  0.0000000e+000  1.1429167e-003 
 0.0000000e+000  2.4968054e-002  1.0000000e+000  0.0000000e+000  1.0000000e+000  2.7136545e+000  2.7136545e+000  3.2136545e+000 
 1.0064180e-001  2.5129166e-002  5.5017668e-001  9.6548766e-002  5.5858397e-001  2.5018528e+000  2.5018528e+000  2.6578608e+000 
 2.9387406e-001  2.5438499e-002  3.4786436e-001  1.3484465e-002  3.4812561e-001  2.0951934e+000  2.0951934e+000  2.1557891e+000 
 4.7164768e-001  2.5723085e-002  2.4665679e-001  3.5167984e-003  2.4668185e-001  2.1194777e+000  2.1194777e+000  2.1499038e+000 
 6.3519943e-001  2.5984902e-002  2.2395006e-001  1.9707829e-003  2.2395873e-001  2.0635259e+000  2.0635259e+000  2.0886047e+000 
 7.8566706e-001  2.6225779e-002  2.0266442e-001  1.4879621e-003  2.0266989e-001  2.0425165e+000  2.0425165e+000  2.0630541e+000 
 9.2409730e-001  2.6447382e-002  1.8900262e-001  1.3463430e-003  1.8900742e-001  2.0211315e+000  2.0211315e+000  2.0389934e+000 
 1.0514532e+000  2.6651258e-002  1.7621644e-001  1.3591199e-003  1.7622168e-001  2.0070503e+000  2.0070503e+000  2.0225773e+000 
 1.1686206e+000  2.6838820e-002  1.6410647e-001  1.4524349e-003  1.6411290e-001  1.9974887e+000  1.9974887e+000  2.0109553e+000 
 1.2764145e+000  2.7011372e-002  1.5188232e-001  1.5904240e-003  1.5189065e-001  1.9922976e+000  1.9922976e+000  2.0038331e+000 
 1.3755851e+000  2.7170129e-002  1.3942598e-001  1.7464742e-003  1.3943692e-001  1.9907486e+000  1.9907486e+000  2.0004699e+000 
 1.4668220e+000  2.7316183e-002  1.2677310e-001  1.8997424e-003  1.2678733e-001  1.9922003e+000  1.9922003e+000  2.0002377e+000 
 1.5507600e+000  2.7450554e-002  1.1409843e-001  2.0336416e-003  1.1411655e-001  1.9959805e+000  1.9959805e+000  2.0024917e+000 
 1.6279825e+000  2.7574174e-002  1.0163382e-001  2.1358163e-003  1.0165627e-001  2.0014458e+000  2.0014458e+000  2.0066128e+000 
 1.6990275e+000  2.7687898e-002  8.9618608e-002  2.2000568e-003  8.9645609e-002  2.0080106e+000  2.0080106e+000  2.0120287e+000 
 1.7643890e+000  2.7792532e-002  7.8264438e-002  2.2243096e-003  7.8296036e-002  2.0151777e+000  2.0151777e+000  2.0182428e+000 
 1.8245215e+000  2.7888793e-002  6.7728892e-002  2.2140308e-003  6.7765072e-002  2.0225465e+000  2.0225465e+000  2.0248425e+000 
 1.8798435e+000  2.7977362e-002  5.8075551e-002  2.1793409e-003  5.8116429e-002  2.0298021e+000  2.0298021e+000  2.0314908e+000 
 1.9307395e+000  2.8058834e-002  4.9443446e-002  2.1065960e-003  4.9488302e-002  2.0368860e+000  2.0368860e+000  2.0381105e+000 
 1.9775635e+000  2.8133780e-002  4.1702956e-002  1.8671416e-003  4.1744735e-002  2.0432808e+000  2.0432808e+000  2.0441523e+000 
 2.0432520e+000  2.9748507e-002  3.1590652e-002  2.8459900e-003  3.1718589e-002  2.0513091e+000  2.0513091e+000  2.0518122e+000 